LAMMPS-data extracted frm 401 of mdT100-19.trj  pbc111 sx0 sy0 sz0

 98304 atoms

 1 atom types

 0.0 124 xlo xhi
 0.0 40 ylo yhi
 0.0 40 zlo zhi

Atoms

1 1 1 0 0 0 0 0 0
2 1 1 0.967  0 0 0 0
3 1 1 1.934  0 0 0 0
4 1 1 2.901  0 0 0 0
5 1 1 3.868  0 0 0 0
6 1 1 4.835  0 0 0 0
7 1 1 5.802  0 0 0 0
8 1 1 6.769  0 0 0 0
9 1 1 7.736  0 0 0 0
10 1 1 8.703  0 0 0 0
11 1 1 9.67  0 0 0 0
12 1 1 10.637  0 0 0 0
13 1 1 11.604  0 0 0 0
14 1 1 12.571  0 0 0 0
15 1 1 13.538  0 0 0 0
16 1 1 14.505  0 0 0 0
17 1 1 15.472 0.967 0 0 0 0
18 1 1 15.472 1.934 0 0 0 0
19 1 1 15.472 2.901 0 0 0 0
20 1 1 15.472 3.868 0 0 0 0
21 1 1 15.472 4.835 0 0 0 0
22 1 1 15.472 5.802 0 0 0 0
23 1 1 15.472 6.769 0 0 0 0
24 1 1 15.472 7.736 0 0 0 0
25 1 1 15.472 8.703 0 0 0 0
26 1 1 15.472 9.67 0 0 0 0
27 1 1 15.472 10.637 0 0 0 0
28 1 1 15.472 11.604 0 0 0 0
29 1 1 15.472 12.571 0 0 0 0
30 1 1 15.472 13.538 0 0 0 0
31 1 1 15.472 14.505 0 0 0 0
33 1 1 46.416 14.505 0 0 0 0
34 1 1 46.416 13.538 0 0 0 0
35 1 1 46.416 12.571 0 0 0 0
36 1 1 46.416 11.604 0 0 0 0
37 1 1 46.416 10.637 0 0 0 0
38 1 1 46.416 9.67 0 0 0 0
39 1 1 46.416 8.703 0 0 0 0
40 1 1 46.416 7.736 0 0 0 0
41 1 1 46.416 6.769 0 0 0 0
42 1 1 46.416 5.802 0 0 0 0
43 1 1 46.416 4.835 0 0 0 0
44 1 1 46.416 3.868 0 0 0 0
45 1 1 46.416 2.901 0 0 0 0
46 1 1 46.416 1.934 0 0 0 0
47 1 1 46.416 0.967 0 0 0 0
48 1 1 48.35 0 0 0 0 0
49 1 1 49.317 0 0 0 0 0
50 1 1 50.284 0 0 0 0 0
51 1 1 51.251 0 0 0 0 0
52 1 1 52.218 0 0 0 0 0
53 1 1 53.185 0 0 0 0 0
54 1 1 54.152 0 0 0 0 0
55 1 1 55.119 0 0 0 0 0
56 1 1 56.086 0 0 0 0 0
57 1 1 57.053 0 0 0 0 0
58 1 1 58.02 0 0 0 0 0
59 1 1 58.987 0 0 0 0 0
60 1 1 59.954 0 0 0 0 0
61 1 1 60.921 0 0 0 0 0
62 1 1 61.888 1.934 0 0 0 0
63 1 1 61.888 2.901 0 0 0 0
64 1 1 61.888 3.868 0 0 0 0
65 1 1 61.888 4.835 0 0 0 0
66 1 1 61.888 5.802 0 0 0 0
67 1 1 61.888 6.769 0 0 0 0
68 1 1 61.888 7.736 0 0 0 0
69 1 1 61.888 8.703 0 0 0 0
70 1 1 61.888 9.67 0 0 0 0
71 1 1 61.888 10.637 0 0 0 0
72 1 1 61.888 11.604 0 0 0 0
73 1 1 61.888 12.571 0 0 0 0
74 1 1 61.888 13.538 0 0 0 0
75 1 1 61.888 14.505 0 0 0 0
77 1 1 135.38 13.538 0 0 0 0
78 1 1 135.38 12.571 0 0 0 0
79 1 1 135.38 11.604 0 0 0 0
80 1 1 135.38 10.637 0 0 0 0
81 1 1 135.38 9.67 0 0 0 0
82 1 1 135.38 8.703 0 0 0 0
83 1 1 135.38 7.736 0 0 0 0
84 1 1 135.38 6.769 0 0 0 0
85 1 1 135.38 5.802 0 0 0 0
86 1 1 135.38 4.835 0 0 0 0
87 1 1 135.38 3.868 0 0 0 0
88 1 1 135.38 2.901 0 0 0 0
89 1 1 135.38 1.934 0 0 0 0
90 1 1 135.38 0.967 0 0 0 0
91 1 1 138.281 0 0 0 0 0
92 1 1 139.248 0 0 0 0 0
93 1 1 140.215 0 0 0 0 0
94 1 1 141.182 0 0 0 0 0
95 1 1 142.149 0 0 0 0 0
96 1 1 143.116 0 0 0 0 0
97 1 1 144.083 0 0 0 0 0
98 1 1 145.05 0 0 0 0 0
99 1 1 146.017 0 0 0 0 0
100 1 1 146.984 0 0 0 0 0
101 1 1 147.951 0 0 0 0 0
102 1 1 148.918 0 0 0 0 0
103 1 1 149.885 0 0 0 0 0
104 1 1 150.852 2.901 0 0 0 0
105 1 1 150.852 3.868 0 0 0 0
106 1 1 150.852 4.835 0 0 0 0
107 1 1 150.852 5.802 0 0 0 0
108 1 1 150.852 6.769 0 0 0 0
109 1 1 150.852 7.736 0 0 0 0
110 1 1 150.852 8.703 0 0 0 0
111 1 1 150.852 9.67 0 0 0 0
112 1 1 150.852 10.637 0 0 0 0
113 1 1 150.852 11.604 0 0 0 0
114 1 1 150.852 12.571 0 0 0 0
115 1 1 150.852 13.538 0 0 0 0
116 1 1 150.852 14.505 0 0 0 0
118 1 1 263.991 12.571 0 0 0 0
119 1 1 263.991 11.604 0 0 0 0
120 1 1 263.991 10.637 0 0 0 0
121 1 1 263.991 9.67 0 0 0 0
122 1 1 263.991 8.703 0 0 0 0
123 1 1 263.991 7.736 0 0 0 0
124 1 1 263.991 6.769 0 0 0 0
125 1 1 263.991 5.802 0 0 0 0
126 1 1 263.991 4.835 0 0 0 0
127 1 1 263.991 3.868 0 0 0 0
128 1 1 263.991 2.901 0 0 0 0
129 1 1 263.991 1.934 0 0 0 0
130 1 1 263.991 0.967 0 0 0 0
131 1 1 267.859 0 0 0 0 0
132 1 1 268.826 0 0 0 0 0
133 1 1 269.793 0 0 0 0 0
134 1 1 270.76 0 0 0 0 0
135 1 1 271.727 0 0 0 0 0
136 1 1 272.694 0 0 0 0 0
137 1 1 273.661 0 0 0 0 0
138 1 1 274.628 0 0 0 0 0
139 1 1 275.595 0 0 0 0 0
140 1 1 276.562 0 0 0 0 0
141 1 1 277.529 0 0 0 0 0
142 1 1 278.496 0 0 0 0 0
143 1 1 279.463 3.868 0 0 0 0
144 1 1 279.463 4.835 0 0 0 0
145 1 1 279.463 5.802 0 0 0 0
146 1 1 279.463 6.769 0 0 0 0
147 1 1 279.463 7.736 0 0 0 0
148 1 1 279.463 8.703 0 0 0 0
149 1 1 279.463 9.67 0 0 0 0
150 1 1 279.463 10.637 0 0 0 0
151 1 1 279.463 11.604 0 0 0 0
152 1 1 279.463 12.571 0 0 0 0
153 1 1 279.463 13.538 0 0 0 0
154 1 1 279.463 14.505 0 0 0 0
156 1 1 429.348 11.604 0 0 0 0
157 1 1 429.348 10.637 0 0 0 0
158 1 1 429.348 9.67 0 0 0 0
159 1 1 429.348 8.703 0 0 0 0
160 1 1 429.348 7.736 0 0 0 0
161 1 1 429.348 6.769 0 0 0 0
162 1 1 429.348 5.802 0 0 0 0
163 1 1 429.348 4.835 0 0 0 0
164 1 1 429.348 3.868 0 0 0 0
165 1 1 429.348 2.901 0 0 0 0
166 1 1 429.348 1.934 0 0 0 0
167 1 1 429.348 0.967 0 0 0 0
