LAMMPS-data extracted frm 401 of mdT100-19.trj  pbc111 sx0 sy0 sz0

 24576 atoms
 24192 bonds
 23808 angles

 1 atom types
 1 bond types
 1 angle types

 0.0 63 xlo xhi
 0.0 40 ylo yhi
 0.0 40 zlo zhi

Atoms

