LAMMPS data file from template

513 atoms
512 bonds
0 angles
0 dihedrals
0 impropers

3 atom types
1 bond types
0 angle types
0 dihedral types
0 improper types

0 108 xlo xhi
0 17 ylo yhi
0     2 zlo zhi

Masses

1 1
2 1
3 1

Atoms

0 1 1 -1.000000 0.000000 0.000000 0 0 0
1 1 1 0.000000 0.000000 0.000000 0 0 0
2 1 1 1.000000 0.000000 0.000000 0 0 0
3 1 3 2.000000 14.000000 0.000000 0 0 0
4 1 3 3.000000 14.000000 0.000000 0 0 0
5 1 3 4.000000 14.000000 0.000000 0 0 0
6 1 3 5.000000 14.000000 0.000000 0 0 0
7 1 3 6.000000 14.000000 0.000000 0 0 0
8 1 3 7.000000 14.000000 0.000000 0 0 0
9 1 3 8.000000 14.000000 0.000000 0 0 0
10 1 3 9.000000 14.000000 0.000000 0 0 0
11 1 3 10.000000 14.000000 0.000000 0 0 0
12 1 3 11.000000 14.000000 0.000000 0 0 0
13 1 3 12.000000 14.000000 0.000000 0 0 0
14 1 3 13.000000 14.000000 0.000000 0 0 0
15 1 3 14.000000 14.000000 0.000000 0 0 0
16 1 3 15.000000 14.000000 0.000000 0 0 0
17 1 3 16.000000 14.000000 0.000000 0 0 0
3 1 3 2.000000 14.000000 0.000000 0 0 0
4 1 3 3.000000 14.000000 0.000000 0 0 0
5 1 3 4.000000 14.000000 0.000000 0 0 0
6 1 3 5.000000 14.000000 0.000000 0 0 0
7 1 3 6.000000 14.000000 0.000000 0 0 0
8 1 3 7.000000 14.000000 0.000000 0 0 0
9 1 3 8.000000 14.000000 0.000000 0 0 0
10 1 3 9.000000 14.000000 0.000000 0 0 0
11 1 3 10.000000 14.000000 0.000000 0 0 0
12 1 3 11.000000 14.000000 0.000000 0 0 0
13 1 3 12.000000 14.000000 0.000000 0 0 0
14 1 3 13.000000 14.000000 0.000000 0 0 0
15 1 3 14.000000 14.000000 0.000000 0 0 0
16 1 3 15.000000 14.000000 0.000000 0 0 0
17 1 3 16.000000 14.000000 0.000000 0 0 0
3 1 3 2.000000 14.000000 0.000000 0 0 0
4 1 3 3.000000 14.000000 0.000000 0 0 0
5 1 3 4.000000 14.000000 0.000000 0 0 0
6 1 3 5.000000 14.000000 0.000000 0 0 0
7 1 3 6.000000 14.000000 0.000000 0 0 0
8 1 3 7.000000 14.000000 0.000000 0 0 0
9 1 3 8.000000 14.000000 0.000000 0 0 0
10 1 3 9.000000 14.000000 0.000000 0 0 0
11 1 3 10.000000 14.000000 0.000000 0 0 0
12 1 3 11.000000 14.000000 0.000000 0 0 0
13 1 3 12.000000 14.000000 0.000000 0 0 0
14 1 3 13.000000 14.000000 0.000000 0 0 0
15 1 3 14.000000 14.000000 0.000000 0 0 0
16 1 3 15.000000 14.000000 0.000000 0 0 0
17 1 3 16.000000 14.000000 0.000000 0 0 0
3 1 3 2.000000 14.000000 0.000000 0 0 0
4 1 3 3.000000 14.000000 0.000000 0 0 0
5 1 3 4.000000 14.000000 0.000000 0 0 0
6 1 3 5.000000 14.000000 0.000000 0 0 0
7 1 3 6.000000 14.000000 0.000000 0 0 0
8 1 3 7.000000 14.000000 0.000000 0 0 0
9 1 3 8.000000 14.000000 0.000000 0 0 0
10 1 3 9.000000 14.000000 0.000000 0 0 0
11 1 3 10.000000 14.000000 0.000000 0 0 0
12 1 3 11.000000 14.000000 0.000000 0 0 0
13 1 3 12.000000 14.000000 0.000000 0 0 0
14 1 3 13.000000 14.000000 0.000000 0 0 0
15 1 3 14.000000 14.000000 0.000000 0 0 0
16 1 3 15.000000 14.000000 0.000000 0 0 0
17 1 3 16.000000 14.000000 0.000000 0 0 0
18 1 1 17.000000 0.000000 0.000000 0 0 0
19 1 3 18.000000 14.000000 0.000000 0 0 0
20 1 3 19.000000 14.000000 0.000000 0 0 0
21 1 3 20.000000 14.000000 0.000000 0 0 0
22 1 3 21.000000 14.000000 0.000000 0 0 0
23 1 3 22.000000 14.000000 0.000000 0 0 0
24 1 3 23.000000 14.000000 0.000000 0 0 0
25 1 3 24.000000 14.000000 0.000000 0 0 0
26 1 3 25.000000 14.000000 0.000000 0 0 0
27 1 3 26.000000 14.000000 0.000000 0 0 0
28 1 3 27.000000 14.000000 0.000000 0 0 0
29 1 3 28.000000 14.000000 0.000000 0 0 0
30 1 3 29.000000 14.000000 0.000000 0 0 0
31 1 3 30.000000 14.000000 0.000000 0 0 0
32 1 3 31.000000 14.000000 0.000000 0 0 0
33 1 3 32.000000 14.000000 0.000000 0 0 0
19 1 3 18.000000 14.000000 0.000000 0 0 0
20 1 3 19.000000 14.000000 0.000000 0 0 0
21 1 3 20.000000 14.000000 0.000000 0 0 0
22 1 3 21.000000 14.000000 0.000000 0 0 0
23 1 3 22.000000 14.000000 0.000000 0 0 0
24 1 3 23.000000 14.000000 0.000000 0 0 0
25 1 3 24.000000 14.000000 0.000000 0 0 0
26 1 3 25.000000 14.000000 0.000000 0 0 0
27 1 3 26.000000 14.000000 0.000000 0 0 0
28 1 3 27.000000 14.000000 0.000000 0 0 0
29 1 3 28.000000 14.000000 0.000000 0 0 0
30 1 3 29.000000 14.000000 0.000000 0 0 0
31 1 3 30.000000 14.000000 0.000000 0 0 0
32 1 3 31.000000 14.000000 0.000000 0 0 0
33 1 3 32.000000 14.000000 0.000000 0 0 0
19 1 3 18.000000 14.000000 0.000000 0 0 0
20 1 3 19.000000 14.000000 0.000000 0 0 0
21 1 3 20.000000 14.000000 0.000000 0 0 0
22 1 3 21.000000 14.000000 0.000000 0 0 0
23 1 3 22.000000 14.000000 0.000000 0 0 0
24 1 3 23.000000 14.000000 0.000000 0 0 0
25 1 3 24.000000 14.000000 0.000000 0 0 0
26 1 3 25.000000 14.000000 0.000000 0 0 0
27 1 3 26.000000 14.000000 0.000000 0 0 0
28 1 3 27.000000 14.000000 0.000000 0 0 0
29 1 3 28.000000 14.000000 0.000000 0 0 0
30 1 3 29.000000 14.000000 0.000000 0 0 0
31 1 3 30.000000 14.000000 0.000000 0 0 0
32 1 3 31.000000 14.000000 0.000000 0 0 0
33 1 3 32.000000 14.000000 0.000000 0 0 0
19 1 3 18.000000 14.000000 0.000000 0 0 0
20 1 3 19.000000 14.000000 0.000000 0 0 0
21 1 3 20.000000 14.000000 0.000000 0 0 0
22 1 3 21.000000 14.000000 0.000000 0 0 0
23 1 3 22.000000 14.000000 0.000000 0 0 0
24 1 3 23.000000 14.000000 0.000000 0 0 0
25 1 3 24.000000 14.000000 0.000000 0 0 0
26 1 3 25.000000 14.000000 0.000000 0 0 0
27 1 3 26.000000 14.000000 0.000000 0 0 0
28 1 3 27.000000 14.000000 0.000000 0 0 0
29 1 3 28.000000 14.000000 0.000000 0 0 0
30 1 3 29.000000 14.000000 0.000000 0 0 0
31 1 3 30.000000 14.000000 0.000000 0 0 0
32 1 3 31.000000 14.000000 0.000000 0 0 0
33 1 3 32.000000 14.000000 0.000000 0 0 0
34 1 1 33.000000 0.000000 0.000000 0 0 0
35 1 3 34.000000 14.000000 0.000000 0 0 0
36 1 3 35.000000 14.000000 0.000000 0 0 0
37 1 3 36.000000 14.000000 0.000000 0 0 0
38 1 3 37.000000 14.000000 0.000000 0 0 0
39 1 3 38.000000 14.000000 0.000000 0 0 0
40 1 3 39.000000 14.000000 0.000000 0 0 0
41 1 3 40.000000 14.000000 0.000000 0 0 0
42 1 3 41.000000 14.000000 0.000000 0 0 0
43 1 3 42.000000 14.000000 0.000000 0 0 0
44 1 3 43.000000 14.000000 0.000000 0 0 0
45 1 3 44.000000 14.000000 0.000000 0 0 0
46 1 3 45.000000 14.000000 0.000000 0 0 0
47 1 3 46.000000 14.000000 0.000000 0 0 0
48 1 3 47.000000 14.000000 0.000000 0 0 0
49 1 3 48.000000 14.000000 0.000000 0 0 0
35 1 3 34.000000 14.000000 0.000000 0 0 0
36 1 3 35.000000 14.000000 0.000000 0 0 0
37 1 3 36.000000 14.000000 0.000000 0 0 0
38 1 3 37.000000 14.000000 0.000000 0 0 0
39 1 3 38.000000 14.000000 0.000000 0 0 0
40 1 3 39.000000 14.000000 0.000000 0 0 0
41 1 3 40.000000 14.000000 0.000000 0 0 0
42 1 3 41.000000 14.000000 0.000000 0 0 0
43 1 3 42.000000 14.000000 0.000000 0 0 0
44 1 3 43.000000 14.000000 0.000000 0 0 0
45 1 3 44.000000 14.000000 0.000000 0 0 0
46 1 3 45.000000 14.000000 0.000000 0 0 0
47 1 3 46.000000 14.000000 0.000000 0 0 0
48 1 3 47.000000 14.000000 0.000000 0 0 0
49 1 3 48.000000 14.000000 0.000000 0 0 0
35 1 3 34.000000 14.000000 0.000000 0 0 0
36 1 3 35.000000 14.000000 0.000000 0 0 0
37 1 3 36.000000 14.000000 0.000000 0 0 0
38 1 3 37.000000 14.000000 0.000000 0 0 0
39 1 3 38.000000 14.000000 0.000000 0 0 0
40 1 3 39.000000 14.000000 0.000000 0 0 0
41 1 3 40.000000 14.000000 0.000000 0 0 0
42 1 3 41.000000 14.000000 0.000000 0 0 0
43 1 3 42.000000 14.000000 0.000000 0 0 0
44 1 3 43.000000 14.000000 0.000000 0 0 0
45 1 3 44.000000 14.000000 0.000000 0 0 0
46 1 3 45.000000 14.000000 0.000000 0 0 0
47 1 3 46.000000 14.000000 0.000000 0 0 0
48 1 3 47.000000 14.000000 0.000000 0 0 0
49 1 3 48.000000 14.000000 0.000000 0 0 0
35 1 3 34.000000 14.000000 0.000000 0 0 0
36 1 3 35.000000 14.000000 0.000000 0 0 0
37 1 3 36.000000 14.000000 0.000000 0 0 0
38 1 3 37.000000 14.000000 0.000000 0 0 0
39 1 3 38.000000 14.000000 0.000000 0 0 0
40 1 3 39.000000 14.000000 0.000000 0 0 0
41 1 3 40.000000 14.000000 0.000000 0 0 0
42 1 3 41.000000 14.000000 0.000000 0 0 0
43 1 3 42.000000 14.000000 0.000000 0 0 0
44 1 3 43.000000 14.000000 0.000000 0 0 0
45 1 3 44.000000 14.000000 0.000000 0 0 0
46 1 3 45.000000 14.000000 0.000000 0 0 0
47 1 3 46.000000 14.000000 0.000000 0 0 0
48 1 3 47.000000 14.000000 0.000000 0 0 0
49 1 3 48.000000 14.000000 0.000000 0 0 0
50 1 1 49.000000 0.000000 0.000000 0 0 0
51 1 3 50.000000 14.000000 0.000000 0 0 0
52 1 3 51.000000 14.000000 0.000000 0 0 0
53 1 3 52.000000 14.000000 0.000000 0 0 0
54 1 3 53.000000 14.000000 0.000000 0 0 0
55 1 3 54.000000 14.000000 0.000000 0 0 0
56 1 3 55.000000 14.000000 0.000000 0 0 0
57 1 3 56.000000 14.000000 0.000000 0 0 0
58 1 3 57.000000 14.000000 0.000000 0 0 0
59 1 3 58.000000 14.000000 0.000000 0 0 0
60 1 3 59.000000 14.000000 0.000000 0 0 0
61 1 3 60.000000 14.000000 0.000000 0 0 0
62 1 3 61.000000 14.000000 0.000000 0 0 0
63 1 3 62.000000 14.000000 0.000000 0 0 0
64 1 3 63.000000 14.000000 0.000000 0 0 0
65 1 3 64.000000 14.000000 0.000000 0 0 0
51 1 3 50.000000 14.000000 0.000000 0 0 0
52 1 3 51.000000 14.000000 0.000000 0 0 0
53 1 3 52.000000 14.000000 0.000000 0 0 0
54 1 3 53.000000 14.000000 0.000000 0 0 0
55 1 3 54.000000 14.000000 0.000000 0 0 0
56 1 3 55.000000 14.000000 0.000000 0 0 0
57 1 3 56.000000 14.000000 0.000000 0 0 0
58 1 3 57.000000 14.000000 0.000000 0 0 0
59 1 3 58.000000 14.000000 0.000000 0 0 0
60 1 3 59.000000 14.000000 0.000000 0 0 0
61 1 3 60.000000 14.000000 0.000000 0 0 0
62 1 3 61.000000 14.000000 0.000000 0 0 0
63 1 3 62.000000 14.000000 0.000000 0 0 0
64 1 3 63.000000 14.000000 0.000000 0 0 0
65 1 3 64.000000 14.000000 0.000000 0 0 0
51 1 3 50.000000 14.000000 0.000000 0 0 0
52 1 3 51.000000 14.000000 0.000000 0 0 0
53 1 3 52.000000 14.000000 0.000000 0 0 0
54 1 3 53.000000 14.000000 0.000000 0 0 0
55 1 3 54.000000 14.000000 0.000000 0 0 0
56 1 3 55.000000 14.000000 0.000000 0 0 0
57 1 3 56.000000 14.000000 0.000000 0 0 0
58 1 3 57.000000 14.000000 0.000000 0 0 0
59 1 3 58.000000 14.000000 0.000000 0 0 0
60 1 3 59.000000 14.000000 0.000000 0 0 0
61 1 3 60.000000 14.000000 0.000000 0 0 0
62 1 3 61.000000 14.000000 0.000000 0 0 0
63 1 3 62.000000 14.000000 0.000000 0 0 0
64 1 3 63.000000 14.000000 0.000000 0 0 0
65 1 3 64.000000 14.000000 0.000000 0 0 0
51 1 3 50.000000 14.000000 0.000000 0 0 0
52 1 3 51.000000 14.000000 0.000000 0 0 0
53 1 3 52.000000 14.000000 0.000000 0 0 0
54 1 3 53.000000 14.000000 0.000000 0 0 0
55 1 3 54.000000 14.000000 0.000000 0 0 0
56 1 3 55.000000 14.000000 0.000000 0 0 0
57 1 3 56.000000 14.000000 0.000000 0 0 0
58 1 3 57.000000 14.000000 0.000000 0 0 0
59 1 3 58.000000 14.000000 0.000000 0 0 0
60 1 3 59.000000 14.000000 0.000000 0 0 0
61 1 3 60.000000 14.000000 0.000000 0 0 0
62 1 3 61.000000 14.000000 0.000000 0 0 0
63 1 3 62.000000 14.000000 0.000000 0 0 0
64 1 3 63.000000 14.000000 0.000000 0 0 0
65 1 3 64.000000 14.000000 0.000000 0 0 0
66 1 1 65.000000 0.000000 0.000000 0 0 0
67 1 3 66.000000 14.000000 0.000000 0 0 0
68 1 3 67.000000 14.000000 0.000000 0 0 0
69 1 3 68.000000 14.000000 0.000000 0 0 0
70 1 3 69.000000 14.000000 0.000000 0 0 0
71 1 3 70.000000 14.000000 0.000000 0 0 0
72 1 3 71.000000 14.000000 0.000000 0 0 0
73 1 3 72.000000 14.000000 0.000000 0 0 0
74 1 3 73.000000 14.000000 0.000000 0 0 0
75 1 3 74.000000 14.000000 0.000000 0 0 0
76 1 3 75.000000 14.000000 0.000000 0 0 0
77 1 3 76.000000 14.000000 0.000000 0 0 0
78 1 3 77.000000 14.000000 0.000000 0 0 0
79 1 3 78.000000 14.000000 0.000000 0 0 0
80 1 3 79.000000 14.000000 0.000000 0 0 0
81 1 3 80.000000 14.000000 0.000000 0 0 0
67 1 3 66.000000 14.000000 0.000000 0 0 0
68 1 3 67.000000 14.000000 0.000000 0 0 0
69 1 3 68.000000 14.000000 0.000000 0 0 0
70 1 3 69.000000 14.000000 0.000000 0 0 0
71 1 3 70.000000 14.000000 0.000000 0 0 0
72 1 3 71.000000 14.000000 0.000000 0 0 0
73 1 3 72.000000 14.000000 0.000000 0 0 0
74 1 3 73.000000 14.000000 0.000000 0 0 0
75 1 3 74.000000 14.000000 0.000000 0 0 0
76 1 3 75.000000 14.000000 0.000000 0 0 0
77 1 3 76.000000 14.000000 0.000000 0 0 0
78 1 3 77.000000 14.000000 0.000000 0 0 0
79 1 3 78.000000 14.000000 0.000000 0 0 0
80 1 3 79.000000 14.000000 0.000000 0 0 0
81 1 3 80.000000 14.000000 0.000000 0 0 0
67 1 3 66.000000 14.000000 0.000000 0 0 0
68 1 3 67.000000 14.000000 0.000000 0 0 0
69 1 3 68.000000 14.000000 0.000000 0 0 0
70 1 3 69.000000 14.000000 0.000000 0 0 0
71 1 3 70.000000 14.000000 0.000000 0 0 0
72 1 3 71.000000 14.000000 0.000000 0 0 0
73 1 3 72.000000 14.000000 0.000000 0 0 0
74 1 3 73.000000 14.000000 0.000000 0 0 0
75 1 3 74.000000 14.000000 0.000000 0 0 0
76 1 3 75.000000 14.000000 0.000000 0 0 0
77 1 3 76.000000 14.000000 0.000000 0 0 0
78 1 3 77.000000 14.000000 0.000000 0 0 0
79 1 3 78.000000 14.000000 0.000000 0 0 0
80 1 3 79.000000 14.000000 0.000000 0 0 0
81 1 3 80.000000 14.000000 0.000000 0 0 0
67 1 3 66.000000 14.000000 0.000000 0 0 0
68 1 3 67.000000 14.000000 0.000000 0 0 0
69 1 3 68.000000 14.000000 0.000000 0 0 0
70 1 3 69.000000 14.000000 0.000000 0 0 0
71 1 3 70.000000 14.000000 0.000000 0 0 0
72 1 3 71.000000 14.000000 0.000000 0 0 0
73 1 3 72.000000 14.000000 0.000000 0 0 0
74 1 3 73.000000 14.000000 0.000000 0 0 0
75 1 3 74.000000 14.000000 0.000000 0 0 0
76 1 3 75.000000 14.000000 0.000000 0 0 0
77 1 3 76.000000 14.000000 0.000000 0 0 0
78 1 3 77.000000 14.000000 0.000000 0 0 0
79 1 3 78.000000 14.000000 0.000000 0 0 0
80 1 3 79.000000 14.000000 0.000000 0 0 0
81 1 3 80.000000 14.000000 0.000000 0 0 0
82 1 1 81.000000 0.000000 0.000000 0 0 0
83 1 3 82.000000 14.000000 0.000000 0 0 0
84 1 3 83.000000 14.000000 0.000000 0 0 0
85 1 3 84.000000 14.000000 0.000000 0 0 0
86 1 3 85.000000 14.000000 0.000000 0 0 0
87 1 3 86.000000 14.000000 0.000000 0 0 0
88 1 3 87.000000 14.000000 0.000000 0 0 0
89 1 3 88.000000 14.000000 0.000000 0 0 0
90 1 3 89.000000 14.000000 0.000000 0 0 0
91 1 3 90.000000 14.000000 0.000000 0 0 0
92 1 3 91.000000 14.000000 0.000000 0 0 0
93 1 3 92.000000 14.000000 0.000000 0 0 0
94 1 3 93.000000 14.000000 0.000000 0 0 0
95 1 3 94.000000 14.000000 0.000000 0 0 0
96 1 3 95.000000 14.000000 0.000000 0 0 0
97 1 3 96.000000 14.000000 0.000000 0 0 0
83 1 3 82.000000 14.000000 0.000000 0 0 0
84 1 3 83.000000 14.000000 0.000000 0 0 0
85 1 3 84.000000 14.000000 0.000000 0 0 0
86 1 3 85.000000 14.000000 0.000000 0 0 0
87 1 3 86.000000 14.000000 0.000000 0 0 0
88 1 3 87.000000 14.000000 0.000000 0 0 0
89 1 3 88.000000 14.000000 0.000000 0 0 0
90 1 3 89.000000 14.000000 0.000000 0 0 0
91 1 3 90.000000 14.000000 0.000000 0 0 0
92 1 3 91.000000 14.000000 0.000000 0 0 0
93 1 3 92.000000 14.000000 0.000000 0 0 0
94 1 3 93.000000 14.000000 0.000000 0 0 0
95 1 3 94.000000 14.000000 0.000000 0 0 0
96 1 3 95.000000 14.000000 0.000000 0 0 0
97 1 3 96.000000 14.000000 0.000000 0 0 0
83 1 3 82.000000 14.000000 0.000000 0 0 0
84 1 3 83.000000 14.000000 0.000000 0 0 0
85 1 3 84.000000 14.000000 0.000000 0 0 0
86 1 3 85.000000 14.000000 0.000000 0 0 0
87 1 3 86.000000 14.000000 0.000000 0 0 0
88 1 3 87.000000 14.000000 0.000000 0 0 0
89 1 3 88.000000 14.000000 0.000000 0 0 0
90 1 3 89.000000 14.000000 0.000000 0 0 0
91 1 3 90.000000 14.000000 0.000000 0 0 0
92 1 3 91.000000 14.000000 0.000000 0 0 0
93 1 3 92.000000 14.000000 0.000000 0 0 0
94 1 3 93.000000 14.000000 0.000000 0 0 0
95 1 3 94.000000 14.000000 0.000000 0 0 0
96 1 3 95.000000 14.000000 0.000000 0 0 0
97 1 3 96.000000 14.000000 0.000000 0 0 0
83 1 3 82.000000 14.000000 0.000000 0 0 0
84 1 3 83.000000 14.000000 0.000000 0 0 0
85 1 3 84.000000 14.000000 0.000000 0 0 0
86 1 3 85.000000 14.000000 0.000000 0 0 0
87 1 3 86.000000 14.000000 0.000000 0 0 0
88 1 3 87.000000 14.000000 0.000000 0 0 0
89 1 3 88.000000 14.000000 0.000000 0 0 0
90 1 3 89.000000 14.000000 0.000000 0 0 0
91 1 3 90.000000 14.000000 0.000000 0 0 0
92 1 3 91.000000 14.000000 0.000000 0 0 0
93 1 3 92.000000 14.000000 0.000000 0 0 0
94 1 3 93.000000 14.000000 0.000000 0 0 0
95 1 3 94.000000 14.000000 0.000000 0 0 0
96 1 3 95.000000 14.000000 0.000000 0 0 0
97 1 3 96.000000 14.000000 0.000000 0 0 0
98 1 1 97.000000 0.000000 0.000000 0 0 0
99 1 3 98.000000 14.000000 0.000000 0 0 0
100 1 3 99.000000 14.000000 0.000000 0 0 0
101 1 3 100.000000 14.000000 0.000000 0 0 0
102 1 3 101.000000 14.000000 0.000000 0 0 0
103 1 3 102.000000 14.000000 0.000000 0 0 0
104 1 3 103.000000 14.000000 0.000000 0 0 0
105 1 3 104.000000 14.000000 0.000000 0 0 0
106 1 3 105.000000 14.000000 0.000000 0 0 0
107 1 3 106.000000 14.000000 0.000000 0 0 0
108 1 3 107.000000 14.000000 0.000000 0 0 0
109 1 3 108.000000 14.000000 0.000000 0 0 0
110 1 3 109.000000 14.000000 0.000000 0 0 0
111 1 3 110.000000 14.000000 0.000000 0 0 0
112 1 3 111.000000 14.000000 0.000000 0 0 0
113 1 3 112.000000 14.000000 0.000000 0 0 0
99 1 3 98.000000 14.000000 0.000000 0 0 0
100 1 3 99.000000 14.000000 0.000000 0 0 0
101 1 3 100.000000 14.000000 0.000000 0 0 0
102 1 3 101.000000 14.000000 0.000000 0 0 0
103 1 3 102.000000 14.000000 0.000000 0 0 0
104 1 3 103.000000 14.000000 0.000000 0 0 0
105 1 3 104.000000 14.000000 0.000000 0 0 0
106 1 3 105.000000 14.000000 0.000000 0 0 0
107 1 3 106.000000 14.000000 0.000000 0 0 0
108 1 3 107.000000 14.000000 0.000000 0 0 0
109 1 3 108.000000 14.000000 0.000000 0 0 0
110 1 3 109.000000 14.000000 0.000000 0 0 0
111 1 3 110.000000 14.000000 0.000000 0 0 0
112 1 3 111.000000 14.000000 0.000000 0 0 0
113 1 3 112.000000 14.000000 0.000000 0 0 0
99 1 3 98.000000 14.000000 0.000000 0 0 0
100 1 3 99.000000 14.000000 0.000000 0 0 0
101 1 3 100.000000 14.000000 0.000000 0 0 0
102 1 3 101.000000 14.000000 0.000000 0 0 0
103 1 3 102.000000 14.000000 0.000000 0 0 0
104 1 3 103.000000 14.000000 0.000000 0 0 0
105 1 3 104.000000 14.000000 0.000000 0 0 0
106 1 3 105.000000 14.000000 0.000000 0 0 0
107 1 3 106.000000 14.000000 0.000000 0 0 0
108 1 3 107.000000 14.000000 0.000000 0 0 0
109 1 3 108.000000 14.000000 0.000000 0 0 0
110 1 3 109.000000 14.000000 0.000000 0 0 0
111 1 3 110.000000 14.000000 0.000000 0 0 0
112 1 3 111.000000 14.000000 0.000000 0 0 0
113 1 3 112.000000 14.000000 0.000000 0 0 0
99 1 3 98.000000 14.000000 0.000000 0 0 0
100 1 3 99.000000 14.000000 0.000000 0 0 0
101 1 3 100.000000 14.000000 0.000000 0 0 0
102 1 3 101.000000 14.000000 0.000000 0 0 0
103 1 3 102.000000 14.000000 0.000000 0 0 0
104 1 3 103.000000 14.000000 0.000000 0 0 0
105 1 3 104.000000 14.000000 0.000000 0 0 0
106 1 3 105.000000 14.000000 0.000000 0 0 0
107 1 3 106.000000 14.000000 0.000000 0 0 0
108 1 3 107.000000 14.000000 0.000000 0 0 0
109 1 3 108.000000 14.000000 0.000000 0 0 0
110 1 3 109.000000 14.000000 0.000000 0 0 0
111 1 3 110.000000 14.000000 0.000000 0 0 0
112 1 3 111.000000 14.000000 0.000000 0 0 0
113 1 3 112.000000 14.000000 0.000000 0 0 0
114 1 1 113.000000 0.000000 0.000000 0 0 0
115 1 3 114.000000 14.000000 0.000000 0 0 0
116 1 3 115.000000 14.000000 0.000000 0 0 0
117 1 3 116.000000 14.000000 0.000000 0 0 0
118 1 3 117.000000 14.000000 0.000000 0 0 0
119 1 3 118.000000 14.000000 0.000000 0 0 0
120 1 3 119.000000 14.000000 0.000000 0 0 0
121 1 3 120.000000 14.000000 0.000000 0 0 0
122 1 3 121.000000 14.000000 0.000000 0 0 0
123 1 3 122.000000 14.000000 0.000000 0 0 0
124 1 3 123.000000 14.000000 0.000000 0 0 0
125 1 3 124.000000 14.000000 0.000000 0 0 0
126 1 3 125.000000 14.000000 0.000000 0 0 0
127 1 3 126.000000 14.000000 0.000000 0 0 0
128 1 3 127.000000 14.000000 0.000000 0 0 0
129 1 3 128.000000 14.000000 0.000000 0 0 0
115 1 3 114.000000 14.000000 0.000000 0 0 0
116 1 3 115.000000 14.000000 0.000000 0 0 0
117 1 3 116.000000 14.000000 0.000000 0 0 0
118 1 3 117.000000 14.000000 0.000000 0 0 0
119 1 3 118.000000 14.000000 0.000000 0 0 0
120 1 3 119.000000 14.000000 0.000000 0 0 0
121 1 3 120.000000 14.000000 0.000000 0 0 0
122 1 3 121.000000 14.000000 0.000000 0 0 0
123 1 3 122.000000 14.000000 0.000000 0 0 0
124 1 3 123.000000 14.000000 0.000000 0 0 0
125 1 3 124.000000 14.000000 0.000000 0 0 0
126 1 3 125.000000 14.000000 0.000000 0 0 0
127 1 3 126.000000 14.000000 0.000000 0 0 0
128 1 3 127.000000 14.000000 0.000000 0 0 0
129 1 3 128.000000 14.000000 0.000000 0 0 0
115 1 3 114.000000 14.000000 0.000000 0 0 0
116 1 3 115.000000 14.000000 0.000000 0 0 0
117 1 3 116.000000 14.000000 0.000000 0 0 0
118 1 3 117.000000 14.000000 0.000000 0 0 0
119 1 3 118.000000 14.000000 0.000000 0 0 0
120 1 3 119.000000 14.000000 0.000000 0 0 0
121 1 3 120.000000 14.000000 0.000000 0 0 0
122 1 3 121.000000 14.000000 0.000000 0 0 0
123 1 3 122.000000 14.000000 0.000000 0 0 0
124 1 3 123.000000 14.000000 0.000000 0 0 0
125 1 3 124.000000 14.000000 0.000000 0 0 0
126 1 3 125.000000 14.000000 0.000000 0 0 0
127 1 3 126.000000 14.000000 0.000000 0 0 0
128 1 3 127.000000 14.000000 0.000000 0 0 0
129 1 3 128.000000 14.000000 0.000000 0 0 0
115 1 3 114.000000 14.000000 0.000000 0 0 0
116 1 3 115.000000 14.000000 0.000000 0 0 0
117 1 3 116.000000 14.000000 0.000000 0 0 0
118 1 3 117.000000 14.000000 0.000000 0 0 0
119 1 3 118.000000 14.000000 0.000000 0 0 0
120 1 3 119.000000 14.000000 0.000000 0 0 0
121 1 3 120.000000 14.000000 0.000000 0 0 0
122 1 3 121.000000 14.000000 0.000000 0 0 0
123 1 3 122.000000 14.000000 0.000000 0 0 0
124 1 3 123.000000 14.000000 0.000000 0 0 0
125 1 3 124.000000 14.000000 0.000000 0 0 0
126 1 3 125.000000 14.000000 0.000000 0 0 0
127 1 3 126.000000 14.000000 0.000000 0 0 0
128 1 3 127.000000 14.000000 0.000000 0 0 0
129 1 3 128.000000 14.000000 0.000000 0 0 0
130 1 1 129.000000 0.000000 0.000000 0 0 0
131 1 3 130.000000 14.000000 0.000000 0 0 0
132 1 3 131.000000 14.000000 0.000000 0 0 0
133 1 3 132.000000 14.000000 0.000000 0 0 0
134 1 3 133.000000 14.000000 0.000000 0 0 0
135 1 3 134.000000 14.000000 0.000000 0 0 0
136 1 3 135.000000 14.000000 0.000000 0 0 0
137 1 3 136.000000 14.000000 0.000000 0 0 0
138 1 3 137.000000 14.000000 0.000000 0 0 0
139 1 3 138.000000 14.000000 0.000000 0 0 0
140 1 3 139.000000 14.000000 0.000000 0 0 0
141 1 3 140.000000 14.000000 0.000000 0 0 0
142 1 3 141.000000 14.000000 0.000000 0 0 0
143 1 3 142.000000 14.000000 0.000000 0 0 0
144 1 3 143.000000 14.000000 0.000000 0 0 0
145 1 3 144.000000 14.000000 0.000000 0 0 0
131 1 3 130.000000 14.000000 0.000000 0 0 0
132 1 3 131.000000 14.000000 0.000000 0 0 0
133 1 3 132.000000 14.000000 0.000000 0 0 0
134 1 3 133.000000 14.000000 0.000000 0 0 0
135 1 3 134.000000 14.000000 0.000000 0 0 0
136 1 3 135.000000 14.000000 0.000000 0 0 0
137 1 3 136.000000 14.000000 0.000000 0 0 0
138 1 3 137.000000 14.000000 0.000000 0 0 0
139 1 3 138.000000 14.000000 0.000000 0 0 0
140 1 3 139.000000 14.000000 0.000000 0 0 0
141 1 3 140.000000 14.000000 0.000000 0 0 0
142 1 3 141.000000 14.000000 0.000000 0 0 0
143 1 3 142.000000 14.000000 0.000000 0 0 0
144 1 3 143.000000 14.000000 0.000000 0 0 0
145 1 3 144.000000 14.000000 0.000000 0 0 0
131 1 3 130.000000 14.000000 0.000000 0 0 0
132 1 3 131.000000 14.000000 0.000000 0 0 0
133 1 3 132.000000 14.000000 0.000000 0 0 0
134 1 3 133.000000 14.000000 0.000000 0 0 0
135 1 3 134.000000 14.000000 0.000000 0 0 0
136 1 3 135.000000 14.000000 0.000000 0 0 0
137 1 3 136.000000 14.000000 0.000000 0 0 0
138 1 3 137.000000 14.000000 0.000000 0 0 0
139 1 3 138.000000 14.000000 0.000000 0 0 0
140 1 3 139.000000 14.000000 0.000000 0 0 0
141 1 3 140.000000 14.000000 0.000000 0 0 0
142 1 3 141.000000 14.000000 0.000000 0 0 0
143 1 3 142.000000 14.000000 0.000000 0 0 0
144 1 3 143.000000 14.000000 0.000000 0 0 0
145 1 3 144.000000 14.000000 0.000000 0 0 0
131 1 3 130.000000 14.000000 0.000000 0 0 0
132 1 3 131.000000 14.000000 0.000000 0 0 0
133 1 3 132.000000 14.000000 0.000000 0 0 0
134 1 3 133.000000 14.000000 0.000000 0 0 0
135 1 3 134.000000 14.000000 0.000000 0 0 0
136 1 3 135.000000 14.000000 0.000000 0 0 0
137 1 3 136.000000 14.000000 0.000000 0 0 0
138 1 3 137.000000 14.000000 0.000000 0 0 0
139 1 3 138.000000 14.000000 0.000000 0 0 0
140 1 3 139.000000 14.000000 0.000000 0 0 0
141 1 3 140.000000 14.000000 0.000000 0 0 0
142 1 3 141.000000 14.000000 0.000000 0 0 0
143 1 3 142.000000 14.000000 0.000000 0 0 0
144 1 3 143.000000 14.000000 0.000000 0 0 0
145 1 3 144.000000 14.000000 0.000000 0 0 0
146 1 1 145.000000 0.000000 0.000000 0 0 0
147 1 3 146.000000 14.000000 0.000000 0 0 0
148 1 3 147.000000 14.000000 0.000000 0 0 0
149 1 3 148.000000 14.000000 0.000000 0 0 0
150 1 3 149.000000 14.000000 0.000000 0 0 0
151 1 3 150.000000 14.000000 0.000000 0 0 0
152 1 3 151.000000 14.000000 0.000000 0 0 0
153 1 3 152.000000 14.000000 0.000000 0 0 0
154 1 3 153.000000 14.000000 0.000000 0 0 0
155 1 3 154.000000 14.000000 0.000000 0 0 0
156 1 3 155.000000 14.000000 0.000000 0 0 0
157 1 3 156.000000 14.000000 0.000000 0 0 0
158 1 3 157.000000 14.000000 0.000000 0 0 0
159 1 3 158.000000 14.000000 0.000000 0 0 0
160 1 3 159.000000 14.000000 0.000000 0 0 0
161 1 3 160.000000 14.000000 0.000000 0 0 0
147 1 3 146.000000 14.000000 0.000000 0 0 0
148 1 3 147.000000 14.000000 0.000000 0 0 0
149 1 3 148.000000 14.000000 0.000000 0 0 0
150 1 3 149.000000 14.000000 0.000000 0 0 0
151 1 3 150.000000 14.000000 0.000000 0 0 0
152 1 3 151.000000 14.000000 0.000000 0 0 0
153 1 3 152.000000 14.000000 0.000000 0 0 0
154 1 3 153.000000 14.000000 0.000000 0 0 0
155 1 3 154.000000 14.000000 0.000000 0 0 0
156 1 3 155.000000 14.000000 0.000000 0 0 0
157 1 3 156.000000 14.000000 0.000000 0 0 0
158 1 3 157.000000 14.000000 0.000000 0 0 0
159 1 3 158.000000 14.000000 0.000000 0 0 0
160 1 3 159.000000 14.000000 0.000000 0 0 0
161 1 3 160.000000 14.000000 0.000000 0 0 0
147 1 3 146.000000 14.000000 0.000000 0 0 0
148 1 3 147.000000 14.000000 0.000000 0 0 0
149 1 3 148.000000 14.000000 0.000000 0 0 0
150 1 3 149.000000 14.000000 0.000000 0 0 0
151 1 3 150.000000 14.000000 0.000000 0 0 0
152 1 3 151.000000 14.000000 0.000000 0 0 0
153 1 3 152.000000 14.000000 0.000000 0 0 0
154 1 3 153.000000 14.000000 0.000000 0 0 0
155 1 3 154.000000 14.000000 0.000000 0 0 0
156 1 3 155.000000 14.000000 0.000000 0 0 0
157 1 3 156.000000 14.000000 0.000000 0 0 0
158 1 3 157.000000 14.000000 0.000000 0 0 0
159 1 3 158.000000 14.000000 0.000000 0 0 0
160 1 3 159.000000 14.000000 0.000000 0 0 0
161 1 3 160.000000 14.000000 0.000000 0 0 0
147 1 3 146.000000 14.000000 0.000000 0 0 0
148 1 3 147.000000 14.000000 0.000000 0 0 0
149 1 3 148.000000 14.000000 0.000000 0 0 0
150 1 3 149.000000 14.000000 0.000000 0 0 0
151 1 3 150.000000 14.000000 0.000000 0 0 0
152 1 3 151.000000 14.000000 0.000000 0 0 0
153 1 3 152.000000 14.000000 0.000000 0 0 0
154 1 3 153.000000 14.000000 0.000000 0 0 0
155 1 3 154.000000 14.000000 0.000000 0 0 0
156 1 3 155.000000 14.000000 0.000000 0 0 0
157 1 3 156.000000 14.000000 0.000000 0 0 0
158 1 3 157.000000 14.000000 0.000000 0 0 0
159 1 3 158.000000 14.000000 0.000000 0 0 0
160 1 3 159.000000 14.000000 0.000000 0 0 0
161 1 3 160.000000 14.000000 0.000000 0 0 0
162 1 1 161.000000 0.000000 0.000000 0 0 0
163 1 3 162.000000 14.000000 0.000000 0 0 0
164 1 3 163.000000 14.000000 0.000000 0 0 0
165 1 3 164.000000 14.000000 0.000000 0 0 0
166 1 3 165.000000 14.000000 0.000000 0 0 0
167 1 3 166.000000 14.000000 0.000000 0 0 0
168 1 3 167.000000 14.000000 0.000000 0 0 0
169 1 3 168.000000 14.000000 0.000000 0 0 0
170 1 3 169.000000 14.000000 0.000000 0 0 0
171 1 3 170.000000 14.000000 0.000000 0 0 0
172 1 3 171.000000 14.000000 0.000000 0 0 0
173 1 3 172.000000 14.000000 0.000000 0 0 0
174 1 3 173.000000 14.000000 0.000000 0 0 0
175 1 3 174.000000 14.000000 0.000000 0 0 0
176 1 3 175.000000 14.000000 0.000000 0 0 0
177 1 3 176.000000 14.000000 0.000000 0 0 0
163 1 3 162.000000 14.000000 0.000000 0 0 0
164 1 3 163.000000 14.000000 0.000000 0 0 0
165 1 3 164.000000 14.000000 0.000000 0 0 0
166 1 3 165.000000 14.000000 0.000000 0 0 0
167 1 3 166.000000 14.000000 0.000000 0 0 0
168 1 3 167.000000 14.000000 0.000000 0 0 0
169 1 3 168.000000 14.000000 0.000000 0 0 0
170 1 3 169.000000 14.000000 0.000000 0 0 0
171 1 3 170.000000 14.000000 0.000000 0 0 0
172 1 3 171.000000 14.000000 0.000000 0 0 0
173 1 3 172.000000 14.000000 0.000000 0 0 0
174 1 3 173.000000 14.000000 0.000000 0 0 0
175 1 3 174.000000 14.000000 0.000000 0 0 0
176 1 3 175.000000 14.000000 0.000000 0 0 0
177 1 3 176.000000 14.000000 0.000000 0 0 0
163 1 3 162.000000 14.000000 0.000000 0 0 0
164 1 3 163.000000 14.000000 0.000000 0 0 0
165 1 3 164.000000 14.000000 0.000000 0 0 0
166 1 3 165.000000 14.000000 0.000000 0 0 0
167 1 3 166.000000 14.000000 0.000000 0 0 0
168 1 3 167.000000 14.000000 0.000000 0 0 0
169 1 3 168.000000 14.000000 0.000000 0 0 0
170 1 3 169.000000 14.000000 0.000000 0 0 0
171 1 3 170.000000 14.000000 0.000000 0 0 0
172 1 3 171.000000 14.000000 0.000000 0 0 0
173 1 3 172.000000 14.000000 0.000000 0 0 0
174 1 3 173.000000 14.000000 0.000000 0 0 0
175 1 3 174.000000 14.000000 0.000000 0 0 0
176 1 3 175.000000 14.000000 0.000000 0 0 0
177 1 3 176.000000 14.000000 0.000000 0 0 0
163 1 3 162.000000 14.000000 0.000000 0 0 0
164 1 3 163.000000 14.000000 0.000000 0 0 0
165 1 3 164.000000 14.000000 0.000000 0 0 0
166 1 3 165.000000 14.000000 0.000000 0 0 0
167 1 3 166.000000 14.000000 0.000000 0 0 0
168 1 3 167.000000 14.000000 0.000000 0 0 0
169 1 3 168.000000 14.000000 0.000000 0 0 0
170 1 3 169.000000 14.000000 0.000000 0 0 0
171 1 3 170.000000 14.000000 0.000000 0 0 0
172 1 3 171.000000 14.000000 0.000000 0 0 0
173 1 3 172.000000 14.000000 0.000000 0 0 0
174 1 3 173.000000 14.000000 0.000000 0 0 0
175 1 3 174.000000 14.000000 0.000000 0 0 0
176 1 3 175.000000 14.000000 0.000000 0 0 0
177 1 3 176.000000 14.000000 0.000000 0 0 0
178 1 1 177.000000 0.000000 0.000000 0 0 0
179 1 3 178.000000 14.000000 0.000000 0 0 0
180 1 3 179.000000 14.000000 0.000000 0 0 0
181 1 3 180.000000 14.000000 0.000000 0 0 0
182 1 3 181.000000 14.000000 0.000000 0 0 0
183 1 3 182.000000 14.000000 0.000000 0 0 0
184 1 3 183.000000 14.000000 0.000000 0 0 0
185 1 3 184.000000 14.000000 0.000000 0 0 0
186 1 3 185.000000 14.000000 0.000000 0 0 0
187 1 3 186.000000 14.000000 0.000000 0 0 0
188 1 3 187.000000 14.000000 0.000000 0 0 0
189 1 3 188.000000 14.000000 0.000000 0 0 0
190 1 3 189.000000 14.000000 0.000000 0 0 0
191 1 3 190.000000 14.000000 0.000000 0 0 0
192 1 3 191.000000 14.000000 0.000000 0 0 0
193 1 3 192.000000 14.000000 0.000000 0 0 0
179 1 3 178.000000 14.000000 0.000000 0 0 0
180 1 3 179.000000 14.000000 0.000000 0 0 0
181 1 3 180.000000 14.000000 0.000000 0 0 0
182 1 3 181.000000 14.000000 0.000000 0 0 0
183 1 3 182.000000 14.000000 0.000000 0 0 0
184 1 3 183.000000 14.000000 0.000000 0 0 0